 Gaussian 16, Revision A.03,
 Gaussian 16:  ES64L-G16RevA.03 25-Dec-2016

 ----------------------------------------------------------------------
 #P td=(nstates=100) APFD/6-311+g(2d,p) guess=read geom=allcheck scrf=c
 heck
 ----------------------------------------------------------------------

 Structure from the checkpoint file:  "CONF_01_ECD.chk"
 -------------------------------------------------------------------
 Structure: CONF_1 Calculation: Opt Freq at APFD/6-311+g(2d,p) level
 -------------------------------------------------------------------
 Charge =  0 Multiplicity = 1

                         Standard orientation:
 ---------------------------------------------------------------------
 Center     Atomic      Atomic             Coordinates (Angstroms)
 Number     Number       Type             X           Y           Z
 ---------------------------------------------------------------------
      1          6           0        1.997912    0.351346    0.130796
      2          6           0        3.049048    0.167224   -0.726273
      3          7           0        3.980116   -0.550451   -0.021613
      4          6           0        3.473245   -0.770730    1.210411
      5          7           0        2.278744   -0.241780    1.340734
      6          6           0        0.697204    1.050511   -0.103372
      7          6           0        0.724317    1.896290   -1.379234
      8          6           0       -0.485902    0.094003   -0.144263
      9          6           0       -0.292396   -1.205019   -0.613937
     10          6           0       -1.349265   -2.094065   -0.718408
     11          6           0       -2.622832   -1.687943   -0.344836
     12          6           0       -2.847905   -0.397563    0.124141
     13          6           0       -1.775976    0.508785    0.220999
     14          6           0       -2.068430    1.902243    0.706305
     15          6           0       -4.237131    0.015750    0.517891
     16          1           0        0.561583    1.721759    0.751149
     17          1           0        3.216617    0.473315   -1.745471
     18          1           0        4.882026   -0.850490   -0.357201
     19          1           0        4.014353   -1.313962    1.970846
     20          1           0       -0.218419    2.432410   -1.506236
     21          1           0        0.861648    1.260403   -2.258357
     22          1           0        1.536567    2.627595   -1.352869
     23          1           0        0.708642   -1.517740   -0.893700
     24          1           0       -1.181449   -3.102277   -1.084786
     25          1           0       -3.457242   -2.379898   -0.417158
     26          1           0       -2.532931    1.885046    1.697172
     27          1           0       -1.182266    2.529780    0.769929
     28          1           0       -2.776244    2.405947    0.039914
     29          1           0       -4.285035    0.321726    1.568010
     30          1           0       -4.586708    0.869669   -0.071351
     31          1           0       -4.944500   -0.802653    0.374938
 ---------------------------------------------------------------------

 SCF Done:  E(RAPFD) =  -614.209835638     A.U. after    1 cycles

 Excitation energies and oscillator strengths:

 Excited State   1:      Singlet-A      5.2156 eV  237.72 nm  f=0.0006  <S**2>=0.000
      52 -> 55        -0.31621
      52 -> 56         0.22772
      53 -> 55         0.29402
      53 -> 56         0.37630
      54 -> 55         0.27402
      54 -> 56        -0.19347
 This state for optimization and/or second-order correction.
 Total Energy, E(TD-HF/TD-DFT) =  -614.018167461
 Copying the excited state density for this state as the 1-particle RhoCI density.

 Excited State   2:      Singlet-A      5.5323 eV  224.11 nm  f=0.0185  <S**2>=0.000
      52 -> 55         0.10056
      53 -> 55        -0.11039
      54 -> 55         0.51012
      54 -> 56         0.45759

 Excited State   3:      Singlet-A      5.5967 eV  221.53 nm  f=0.0089  <S**2>=0.000
      52 -> 55        -0.24398
      52 -> 56         0.19247
      53 -> 56         0.14224
      54 -> 55        -0.37975
      54 -> 56         0.47884

 Excited State   4:      Singlet-A      5.8281 eV  212.73 nm  f=0.0042  <S**2>=0.000
      52 -> 55         0.31366
      52 -> 56         0.37825
      53 -> 55         0.41717
      53 -> 56        -0.27726

 Excited State   5:      Singlet-A      5.9096 eV  209.80 nm  f=0.0024  <S**2>=0.000
      54 -> 57         0.59473
      54 -> 58         0.14194
      54 -> 59         0.30518

 Excited State   6:      Singlet-A      6.1402 eV  201.92 nm  f=0.1035  <S**2>=0.000
      54 -> 58         0.66502
      54 -> 59        -0.11896

 Excited State   7:      Singlet-A      6.1773 eV  200.71 nm  f=0.0150  <S**2>=0.000
      52 -> 56         0.11840
      53 -> 55        -0.10027
      53 -> 57         0.62000
      53 -> 59        -0.23653
      53 -> 60        -0.11137

 Excited State   8:      Singlet-A      6.2065 eV  199.76 nm  f=0.0621  <S**2>=0.000
      52 -> 55        -0.16107
      52 -> 57         0.44014
      53 -> 56        -0.14686
      54 -> 57        -0.24073
      54 -> 59         0.38461

 Excited State   9:      Singlet-A      6.3433 eV  195.46 nm  f=0.5888  <S**2>=0.000
      52 -> 55         0.23298
      52 -> 56         0.31399
      53 -> 55        -0.29640
      53 -> 56         0.23359
      53 -> 58         0.21793
      54 -> 57        -0.14004
      54 -> 59         0.23736
      54 -> 62         0.10904

 Excited State  10:      Singlet-A      6.3868 eV  194.13 nm  f=0.2609  <S**2>=0.000
      52 -> 55         0.29412
      52 -> 56        -0.20151
      52 -> 57         0.22927
      52 -> 58        -0.21574
      52 -> 60        -0.12367
      53 -> 55         0.16143
      53 -> 56         0.29217
      54 -> 60         0.28362

 Excited State  11:      Singlet-A      6.3910 eV  194.00 nm  f=0.1363  <S**2>=0.000
      52 -> 55        -0.11176
      52 -> 56         0.20658
      52 -> 57         0.32939
      52 -> 58         0.12086
      52 -> 59        -0.12787
      53 -> 55        -0.19491
      53 -> 56        -0.10912
      53 -> 58         0.19082
      54 -> 57         0.13731
      54 -> 59        -0.32404
      54 -> 60         0.19593
      54 -> 62        -0.11278

 Excited State  12:      Singlet-A      6.4389 eV  192.55 nm  f=0.1078  <S**2>=0.000
      52 -> 56        -0.14092
      53 -> 55         0.12484
      53 -> 58         0.56973
      53 -> 59         0.16525
      53 -> 60        -0.20299
      54 -> 61         0.10581

 Excited State  13:      Singlet-A      6.5147 eV  190.31 nm  f=0.0355  <S**2>=0.000
      52 -> 58         0.55833
      52 -> 59         0.12046
      52 -> 60        -0.16131
      54 -> 60         0.21129
      54 -> 61         0.20756

 Excited State  14:      Singlet-A      6.5522 eV  189.23 nm  f=0.1723  <S**2>=0.000
      52 -> 56         0.12861
      52 -> 57        -0.12808
      52 -> 58        -0.21735
      53 -> 55        -0.11213
      53 -> 56        -0.13435
      53 -> 60         0.14596
      54 -> 60         0.20711
      54 -> 61         0.49301
      54 -> 62        -0.15408

 Excited State  15:      Singlet-A      6.5725 eV  188.64 nm  f=0.1194  <S**2>=0.000
      52 -> 57        -0.22806
      53 -> 56        -0.11821
      54 -> 59         0.12085
      54 -> 60         0.43401
      54 -> 61        -0.35177
      54 -> 63         0.23773

 Excited State  16:      Singlet-A      6.6499 eV  186.44 nm  f=0.0312  <S**2>=0.000
      52 -> 60        -0.10989
      53 -> 57         0.18214
      53 -> 58        -0.22659
      53 -> 59         0.58029
      53 -> 62        -0.12351

 Excited State  17:      Singlet-A      6.6858 eV  185.44 nm  f=0.0208  <S**2>=0.000
      52 -> 57         0.14999
      52 -> 58        -0.10077
      52 -> 59         0.55382
      53 -> 59         0.11600
      54 -> 59        -0.14679
      54 -> 62         0.27551

 Excited State  18:      Singlet-A      6.7059 eV  184.89 nm  f=0.0602  <S**2>=0.000
      52 -> 58         0.10385
      53 -> 57         0.17926
      53 -> 58         0.13611
      53 -> 60         0.62377

 Excited State  19:      Singlet-A      6.7752 eV  183.00 nm  f=0.0077  <S**2>=0.000
      50 -> 55        -0.13007
      51 -> 55        -0.11552
      51 -> 58         0.14516
      52 -> 58         0.14083
      52 -> 60         0.45626
      54 -> 62        -0.23253
      54 -> 63         0.24245

 Excited State  20:      Singlet-A      6.8103 eV  182.05 nm  f=0.0111  <S**2>=0.000
      51 -> 55         0.18138
      51 -> 58        -0.13739
      52 -> 59        -0.29492
      52 -> 60         0.31734
      54 -> 62         0.39024
      54 -> 65        -0.13362
      54 -> 68         0.12375

 Excited State  21:      Singlet-A      6.8162 eV  181.90 nm  f=0.0066  <S**2>=0.000
      51 -> 55         0.42716
      51 -> 58        -0.34875
      51 -> 59         0.15467
      51 -> 60        -0.15079
      52 -> 58         0.10644
      54 -> 62        -0.27886

 Excited State  22:      Singlet-A      6.8838 eV  180.11 nm  f=0.0236  <S**2>=0.000
      52 -> 60         0.22706
      52 -> 61         0.15288
      53 -> 61         0.40612
      54 -> 60         0.18797
      54 -> 63        -0.36593

 Excited State  23:      Singlet-A      6.8876 eV  180.01 nm  f=0.0126  <S**2>=0.000
      50 -> 55        -0.13432
      52 -> 60        -0.16203
      53 -> 61         0.49499
      53 -> 62        -0.10841
      54 -> 60        -0.17185
      54 -> 63         0.32390

 Excited State  24:      Singlet-A      6.9581 eV  178.19 nm  f=0.0435  <S**2>=0.000
      52 -> 60        -0.13849
      52 -> 61         0.53710
      52 -> 62        -0.16293
      52 -> 63         0.14338
      54 -> 61        -0.10485
      54 -> 64         0.16531
      54 -> 65        -0.18816

 Excited State  25:      Singlet-A      7.0257 eV  176.47 nm  f=0.0053  <S**2>=0.000
      50 -> 55         0.39096
      50 -> 56         0.11033
      51 -> 56         0.10918
      52 -> 61         0.20747
      53 -> 62         0.25222
      54 -> 63         0.15227
      54 -> 64        -0.30969
      54 -> 66        -0.15223
      54 -> 67         0.12403

 Excited State  26:      Singlet-A      7.0318 eV  176.32 nm  f=0.0039  <S**2>=0.000
      50 -> 55        -0.17971
      53 -> 59         0.12593
      53 -> 61         0.11424
      53 -> 62         0.57912
      53 -> 63        -0.14408
      54 -> 64         0.15349

 Excited State  27:      Singlet-A      7.0364 eV  176.20 nm  f=0.0006  <S**2>=0.000
      50 -> 56         0.16134
      51 -> 55         0.11554
      51 -> 56         0.60093
      54 -> 64         0.18963

 Excited State  28:      Singlet-A      7.0436 eV  176.02 nm  f=0.0210  <S**2>=0.000
      50 -> 55        -0.28160
      51 -> 55         0.17080
      51 -> 56         0.20594
      52 -> 62        -0.28116
      52 -> 63         0.32622
      54 -> 64        -0.18694
      54 -> 65         0.25014
      54 -> 67         0.12089

 Excited State  29:      Singlet-A      7.0788 eV  175.15 nm  f=0.0154  <S**2>=0.000
      49 -> 56         0.12460
      50 -> 56         0.51342
      51 -> 56        -0.11894
      52 -> 62        -0.16590
      53 -> 62         0.12368
      53 -> 63         0.32306

 Excited State  30:      Singlet-A      7.0853 eV  174.99 nm  f=0.0097  <S**2>=0.000
      50 -> 55         0.12658
      50 -> 56        -0.36382
      53 -> 62         0.11464
      53 -> 63         0.48959
      53 -> 65        -0.12310

 Excited State  31:      Singlet-A      7.1032 eV  174.55 nm  f=0.0027  <S**2>=0.000
      50 -> 55        -0.29479
      50 -> 58        -0.10566
      52 -> 61         0.14723
      52 -> 62         0.33490
      53 -> 63         0.15856
      54 -> 63        -0.11855
      54 -> 64        -0.32635
      54 -> 65        -0.18885

 Excited State  32:      Singlet-A      7.1366 eV  173.73 nm  f=0.0059  <S**2>=0.000
      50 -> 55         0.10292
      51 -> 55         0.36858
      51 -> 56        -0.18926
      51 -> 58         0.32013
      51 -> 59        -0.12229
      51 -> 60         0.12664
      52 -> 62         0.23264
      52 -> 63         0.19856
      54 -> 66         0.15379

 Excited State  33:      Singlet-A      7.1541 eV  173.30 nm  f=0.0043  <S**2>=0.000
      51 -> 55        -0.25421
      51 -> 58        -0.22817
      51 -> 59         0.10421
      52 -> 62         0.29441
      52 -> 63         0.29695
      54 -> 65         0.23599
      54 -> 66         0.22641
      54 -> 67         0.11811

 Excited State  34:      Singlet-A      7.1982 eV  172.24 nm  f=0.0018  <S**2>=0.000
      50 -> 55        -0.10081
      52 -> 61         0.22829
      52 -> 63        -0.34457
      52 -> 65         0.10798
      54 -> 65         0.44575
      54 -> 66         0.13195
      54 -> 69         0.13244

 Excited State  35:      Singlet-A      7.2749 eV  170.43 nm  f=0.0115  <S**2>=0.000
      52 -> 62        -0.19504
      53 -> 64         0.17319
      54 -> 63        -0.10027
      54 -> 64        -0.29221
      54 -> 66         0.45959
      54 -> 67        -0.13755

 Excited State  36:      Singlet-A      7.2907 eV  170.06 nm  f=0.0082  <S**2>=0.000
      53 -> 63         0.16012
      53 -> 64         0.55830
      53 -> 66         0.17032
      53 -> 67         0.22613
      54 -> 66        -0.16085

 Excited State  37:      Singlet-A      7.3252 eV  169.26 nm  f=0.0004  <S**2>=0.000
      52 -> 63        -0.14682
      52 -> 64        -0.30436
      52 -> 65         0.11164
      52 -> 66        -0.21642
      52 -> 67        -0.11104
      53 -> 64         0.10216
      54 -> 64         0.13800
      54 -> 66         0.11839
      54 -> 67         0.45500

 Excited State  38:      Singlet-A      7.3799 eV  168.00 nm  f=0.0066  <S**2>=0.000
      53 -> 61        -0.15158
      53 -> 65         0.59651
      53 -> 66        -0.16867
      53 -> 67        -0.15012
      53 -> 68         0.18387

 Excited State  39:      Singlet-A      7.4346 eV  166.77 nm  f=0.0038  <S**2>=0.000
      50 -> 57         0.30008
      50 -> 59         0.17282
      52 -> 65        -0.18010
      52 -> 66         0.25770
      53 -> 66        -0.10387
      54 -> 62        -0.13108
      54 -> 67         0.13544
      54 -> 68         0.39968
      54 -> 72        -0.10759

 Excited State  40:      Singlet-A      7.4442 eV  166.55 nm  f=0.0046  <S**2>=0.000
      50 -> 57         0.11470
      52 -> 64         0.44325
      52 -> 65         0.29010
      52 -> 66         0.10323
      54 -> 67         0.27214
      54 -> 68        -0.11017
      54 -> 69         0.19477

 Excited State  41:      Singlet-A      7.4630 eV  166.13 nm  f=0.0047  <S**2>=0.000
      50 -> 57         0.46668
      50 -> 58         0.11221
      50 -> 59         0.26209
      52 -> 62         0.11010
      52 -> 66        -0.10706
      54 -> 67        -0.22797
      54 -> 68        -0.23064

 Excited State  42:      Singlet-A      7.4823 eV  165.70 nm  f=0.0130  <S**2>=0.000
      51 -> 57         0.26371
      52 -> 65        -0.13363
      53 -> 63         0.10347
      53 -> 64        -0.16858
      53 -> 66         0.52944

 Excited State  43:      Singlet-A      7.4902 eV  165.53 nm  f=0.0518  <S**2>=0.000
      51 -> 57         0.47122
      51 -> 59         0.19609
      51 -> 61         0.11352
      52 -> 64         0.10503
      52 -> 65        -0.13423
      53 -> 66        -0.27900
      54 -> 67         0.11887
      54 -> 68        -0.15527

 Excited State  44:      Singlet-A      7.5080 eV  165.14 nm  f=0.0119  <S**2>=0.000
      50 -> 58        -0.14166
      51 -> 57         0.26453
      52 -> 63         0.14705
      52 -> 64        -0.11280
      52 -> 65         0.38467
      52 -> 66        -0.10819
      52 -> 67        -0.11148
      54 -> 66        -0.14104
      54 -> 68         0.24228
      54 -> 69         0.19072

 Excited State  45:      Singlet-A      7.5523 eV  164.17 nm  f=0.0164  <S**2>=0.000
      49 -> 56        -0.19943
      52 -> 64        -0.29857
      52 -> 65         0.12793
      52 -> 66         0.44204
      52 -> 67        -0.14670
      54 -> 68        -0.19928
      54 -> 69         0.13926

 Excited State  46:      Singlet-A      7.5633 eV  163.93 nm  f=0.0047  <S**2>=0.000
      48 -> 55         0.46093
      48 -> 56         0.20102
      49 -> 55        -0.28344
      49 -> 56         0.24642
      52 -> 66         0.15995
      54 -> 69        -0.10240

 Excited State  47:      Singlet-A      7.5785 eV  163.60 nm  f=0.0027  <S**2>=0.000
      48 -> 55         0.30016
      49 -> 55         0.13315
      52 -> 65        -0.20529
      52 -> 66        -0.18082
      52 -> 67        -0.20149
      54 -> 64        -0.10563
      54 -> 69         0.42313
      54 -> 70        -0.15907

 Excited State  48:      Singlet-A      7.5920 eV  163.31 nm  f=0.0026  <S**2>=0.000
      48 -> 55         0.25161
      49 -> 55         0.34392
      52 -> 65         0.18251
      52 -> 67         0.10389
      53 -> 64         0.15371
      53 -> 65        -0.13776
      53 -> 67        -0.33042
      53 -> 68         0.17252
      54 -> 69        -0.15267

 Excited State  49:      Singlet-A      7.6097 eV  162.93 nm  f=0.0027  <S**2>=0.000
      48 -> 55         0.23770
      48 -> 56        -0.12439
      49 -> 55         0.31570
      49 -> 56        -0.10671
      53 -> 64        -0.13870
      53 -> 65         0.15619
      53 -> 67         0.38769
      53 -> 68        -0.22383
      54 -> 69        -0.11571

 Excited State  50:      Singlet-A      7.6270 eV  162.56 nm  f=0.0040  <S**2>=0.000
      48 -> 55        -0.18610
      48 -> 56         0.46398
      49 -> 55         0.27593
      49 -> 56         0.24469
      53 -> 64        -0.10022
      53 -> 67         0.16428
      53 -> 68         0.15698

 Excited State  51:      Singlet-A      7.6469 eV  162.14 nm  f=0.0108  <S**2>=0.000
      49 -> 55        -0.14959
      49 -> 56        -0.31799
      53 -> 64        -0.13910
      53 -> 67         0.21958
      53 -> 68         0.47115

 Excited State  52:      Singlet-A      7.6684 eV  161.68 nm  f=0.0071  <S**2>=0.000
      48 -> 56         0.24079
      49 -> 56        -0.14242
      51 -> 58        -0.22804
      51 -> 59        -0.11177
      51 -> 60         0.19998
      51 -> 61         0.11011
      51 -> 62        -0.17426
      51 -> 63         0.33091
      51 -> 65        -0.11844
      51 -> 66         0.19359
      53 -> 68        -0.20792

 Excited State  53:      Singlet-A      7.6727 eV  161.59 nm  f=0.0108  <S**2>=0.000
      50 -> 58         0.13271
      52 -> 64        -0.19981
      52 -> 67         0.49770
      52 -> 68        -0.19702
      54 -> 69         0.26767

 Excited State  54:      Singlet-A      7.6802 eV  161.43 nm  f=0.0096  <S**2>=0.000
      48 -> 56        -0.36245
      49 -> 56         0.37020
      51 -> 58        -0.12331
      51 -> 60         0.12353
      51 -> 62        -0.10344
      51 -> 63         0.20425
      51 -> 66         0.11144
      53 -> 68         0.22660

 Excited State  55:      Singlet-A      7.7183 eV  160.64 nm  f=0.0450  <S**2>=0.000
      50 -> 58        -0.20869
      52 -> 67         0.31370
      52 -> 68         0.42965
      53 -> 68         0.10893
      54 -> 70        -0.23581

 Excited State  56:      Singlet-A      7.7717 eV  159.53 nm  f=0.0021  <S**2>=0.000
      50 -> 58        -0.20312
      52 -> 65        -0.16161
      52 -> 68         0.11054
      54 -> 65        -0.10449
      54 -> 69         0.10715
      54 -> 70         0.53602
      54 -> 71        -0.21561

 Excited State  57:      Singlet-A      7.8066 eV  158.82 nm  f=0.0188  <S**2>=0.000
      53 -> 69         0.60058
      53 -> 71         0.17289
      54 -> 71         0.18308

 Excited State  58:      Singlet-A      7.8193 eV  158.56 nm  f=0.0219  <S**2>=0.000
      50 -> 58         0.13184
      52 -> 64        -0.11792
      52 -> 68         0.33008
      52 -> 69        -0.14564
      53 -> 69        -0.20307
      54 -> 70         0.17594
      54 -> 71         0.39874

 Excited State  59:      Singlet-A      7.8298 eV  158.35 nm  f=0.0248  <S**2>=0.000
      50 -> 57        -0.18253
      50 -> 58         0.32956
      50 -> 59         0.20653
      50 -> 60        -0.12811
      50 -> 62         0.12265
      52 -> 68         0.20907
      52 -> 69         0.28963
      54 -> 66        -0.10524
      54 -> 71        -0.27590

 Excited State  60:      Singlet-A      7.8660 eV  157.62 nm  f=0.0244  <S**2>=0.000
      50 -> 57        -0.16805
      50 -> 59         0.32681
      50 -> 62         0.13312
      51 -> 57        -0.13079
      51 -> 58         0.12589
      51 -> 59         0.34540
      51 -> 63         0.20509
      51 -> 65        -0.10812
      52 -> 68        -0.12641
      52 -> 69        -0.19906
      54 -> 70        -0.12758

 Excited State  61:      Singlet-A      7.8971 eV  157.00 nm  f=0.0120  <S**2>=0.000
      50 -> 57         0.12121
      50 -> 59        -0.19426
      51 -> 57        -0.18327
      51 -> 58         0.12100
      51 -> 59         0.36246
      51 -> 61         0.10553
      52 -> 69         0.39749
      54 -> 71         0.11666

 Excited State  62:      Singlet-A      7.9206 eV  156.53 nm  f=0.0710  <S**2>=0.000
      50 -> 57        -0.14734
      50 -> 58        -0.23238
      50 -> 59         0.29718
      50 -> 63         0.13326
      51 -> 59        -0.12114
      52 -> 66         0.10931
      52 -> 69         0.33546
      52 -> 70        -0.14953
      54 -> 71         0.26907

 Excited State  63:      Singlet-A      7.9830 eV  155.31 nm  f=0.0010  <S**2>=0.000
      53 -> 65         0.10098
      53 -> 69         0.13139
      53 -> 70         0.64598
      53 -> 71        -0.14289

 Excited State  64:      Singlet-A      8.0259 eV  154.48 nm  f=0.0447  <S**2>=0.000
      50 -> 57        -0.12440
      50 -> 60         0.25196
      50 -> 61         0.19723
      50 -> 63         0.12726
      51 -> 57        -0.14199
      51 -> 60        -0.16361
      51 -> 61         0.33390
      51 -> 62        -0.14874
      51 -> 63        -0.16108
      52 -> 70        -0.18869
      53 -> 71         0.14526
      54 -> 73         0.11428

 Excited State  65:      Singlet-A      8.0398 eV  154.21 nm  f=0.0022  <S**2>=0.000
      52 -> 70         0.14523
      53 -> 69        -0.14784
      53 -> 70         0.16365
      53 -> 71         0.61491

 Excited State  66:      Singlet-A      8.0656 eV  153.72 nm  f=0.0142  <S**2>=0.000
      50 -> 60         0.15062
      50 -> 61         0.11103
      52 -> 69         0.14783
      52 -> 70         0.54756
      52 -> 71        -0.17127
      53 -> 71        -0.10982
      54 -> 72         0.10884
      54 -> 73         0.15025

 Excited State  67:      Singlet-A      8.1177 eV  152.73 nm  f=0.0078  <S**2>=0.000
      50 -> 60         0.10625
      51 -> 58        -0.11912
      51 -> 59         0.11874
      51 -> 60         0.45256
      51 -> 63        -0.11987
      51 -> 65         0.11298
      51 -> 66        -0.22412
      52 -> 71         0.30107
      54 -> 72         0.10473

 Excited State  68:      Singlet-A      8.1193 eV  152.70 nm  f=0.0020  <S**2>=0.000
      50 -> 60        -0.16178
      50 -> 61         0.41952
      50 -> 62        -0.15036
      50 -> 63        -0.12711
      51 -> 60         0.15041
      51 -> 61        -0.13866
      52 -> 70        -0.13437

 The electronic state is 1-A.
 Alpha  occ. eigenvalues --  -14.40770 -14.33638 -10.25148 -10.22235 -10.21669
 Alpha  occ. eigenvalues --  -10.21034 -10.20653 -10.20562 -10.20524 -10.19418
 Alpha  occ. eigenvalues --  -10.19209 -10.19060 -10.18774 -10.18771 -10.18617
 Alpha  occ. eigenvalues --   -1.04462  -0.89966  -0.88366  -0.82610  -0.79522
 Alpha  occ. eigenvalues --   -0.77171  -0.74246  -0.71134  -0.68703  -0.66371
 Alpha  occ. eigenvalues --   -0.62435  -0.60690  -0.58982  -0.58111  -0.54846
 Alpha  occ. eigenvalues --   -0.51025  -0.49526  -0.46535  -0.45887  -0.44924
 Alpha  occ. eigenvalues --   -0.44622  -0.44339  -0.43315  -0.42714  -0.41022
 Alpha  occ. eigenvalues --   -0.40537  -0.39962  -0.39066  -0.38825  -0.37722
 Alpha  occ. eigenvalues --   -0.36034  -0.35399  -0.33843  -0.33482  -0.29594
 Alpha  occ. eigenvalues --   -0.29516  -0.25107  -0.24751  -0.23905
 Alpha virt. eigenvalues --   -0.00856  -0.00607   0.01171   0.01541   0.01931
 Alpha virt. eigenvalues --    0.02618   0.03142   0.03613   0.04179   0.04847
 Alpha virt. eigenvalues --    0.04977   0.05405   0.05681   0.06061   0.06554

 Mulliken charges:
               1
     1  C   -0.623929
     2  C   -0.069431
     3  N   -0.295230
     4  C    0.162056
     5  N   -0.462831
     6  C    0.643120
     7  C   -0.819357
     8  C    0.824385
     9  C   -0.564548
    10  C   -0.469006
    11  C   -0.632883
    12  C    0.454923
    13  C    0.813276
    14  C   -0.884662
    15  C   -0.702116
    16  H    0.113940
    17  H    0.159958
    18  H    0.333520
    19  H    0.152035
    20  H    0.164155
    21  H    0.165121
    22  H    0.158822
    23  H    0.144871
    24  H    0.118278
    25  H    0.114245
    26  H    0.171542
    27  H    0.166880
    28  H    0.176001
    29  H    0.168998
    30  H    0.164834
    31  H    0.153033
 Sum of Mulliken charges =  -0.00000

 Dipole moment (field-independent basis, Debye):
    X=              3.3700    Y=              0.3977    Z=             -2.5802  Tot=              4.2629
 Quadrupole moment (field-independent basis, Debye-Ang):
   XX=            -57.3816   YY=            -85.7145   ZZ=            -93.8901
   XY=             -7.9317   XZ=             -7.6576   YZ=              0.6700

 Normal termination of Gaussian 16 at Sun Oct  9 18:19:04 2022.
