 Gaussian 16, Revision A.03,
 Gaussian 16:  ES64L-G16RevA.03 25-Dec-2016

 -------------------------------------------------------------
 #P mPW1PW91/6-311+G(2d,p) guess=read geom=allcheck scrf=check
 -------------------------------------------------------------

 Structure from the checkpoint file:  "CONF_01_NMR.chk"
 -------------------------------------------------------------------
 Structure: CONF_1 Calculation: Opt Freq at APFD/6-311+g(2d,p) level
 -------------------------------------------------------------------
 Charge =  0 Multiplicity = 1

                         Standard orientation:
 ---------------------------------------------------------------------
 Center     Atomic      Atomic             Coordinates (Angstroms)
 Number     Number       Type             X           Y           Z
 ---------------------------------------------------------------------
      1          6           0        1.997912    0.351346    0.130796
      2          6           0        3.049048    0.167224   -0.726273
      3          7           0        3.980116   -0.550451   -0.021613
      4          6           0        3.473245   -0.770730    1.210411
      5          7           0        2.278744   -0.241780    1.340734
      6          6           0        0.697204    1.050511   -0.103372
      7          6           0        0.724317    1.896290   -1.379234
      8          6           0       -0.485902    0.094003   -0.144263
      9          6           0       -0.292396   -1.205019   -0.613937
     10          6           0       -1.349265   -2.094065   -0.718408
     11          6           0       -2.622832   -1.687943   -0.344836
     12          6           0       -2.847905   -0.397563    0.124141
     13          6           0       -1.775976    0.508785    0.220999
     14          6           0       -2.068430    1.902243    0.706305
     15          6           0       -4.237131    0.015750    0.517891
     16          1           0        0.561583    1.721759    0.751149
     17          1           0        3.216617    0.473315   -1.745471
     18          1           0        4.882026   -0.850490   -0.357201
     19          1           0        4.014353   -1.313962    1.970846
     20          1           0       -0.218419    2.432410   -1.506236
     21          1           0        0.861648    1.260403   -2.258357
     22          1           0        1.536567    2.627595   -1.352869
     23          1           0        0.708642   -1.517740   -0.893700
     24          1           0       -1.181449   -3.102277   -1.084786
     25          1           0       -3.457242   -2.379898   -0.417158
     26          1           0       -2.532931    1.885046    1.697172
     27          1           0       -1.182266    2.529780    0.769929
     28          1           0       -2.776244    2.405947    0.039914
     29          1           0       -4.285035    0.321726    1.568010
     30          1           0       -4.586708    0.869669   -0.071351
     31          1           0       -4.944500   -0.802653    0.374938
 ---------------------------------------------------------------------

 SCF Done:  E(RmPW1PW91) =  -614.568741735     A.U. after   10 cycles

 The electronic state is 1-A.
 Alpha  occ. eigenvalues --  -14.45091 -14.37964 -10.28927 -10.25971 -10.25404
 Alpha  occ. eigenvalues --  -10.24753 -10.24377 -10.24287 -10.24248 -10.23151
 Alpha  occ. eigenvalues --  -10.22940 -10.22789 -10.22490 -10.22488 -10.22329
 Alpha  occ. eigenvalues --   -1.05400  -0.90845  -0.89246  -0.83448  -0.80350
 Alpha  occ. eigenvalues --   -0.77980  -0.75027  -0.71907  -0.69457  -0.67085
 Alpha  occ. eigenvalues --   -0.63106  -0.61354  -0.59657  -0.58744  -0.55470
 Alpha  occ. eigenvalues --   -0.51603  -0.50101  -0.47087  -0.46436  -0.45455
 Alpha  occ. eigenvalues --   -0.45170  -0.44877  -0.43852  -0.43252  -0.41548
 Alpha  occ. eigenvalues --   -0.41046  -0.40479  -0.39584  -0.39334  -0.38223
 Alpha  occ. eigenvalues --   -0.36536  -0.35842  -0.34338  -0.33966  -0.30054
 Alpha  occ. eigenvalues --   -0.29985  -0.25421  -0.25060  -0.24228
 Alpha virt. eigenvalues --   -0.00650  -0.00402   0.00662   0.01244   0.01555
 Alpha virt. eigenvalues --    0.02313   0.02570   0.03085   0.03833   0.04307
 Alpha virt. eigenvalues --    0.04427   0.05147   0.05165   0.05582   0.06000

 Mulliken charges:
               1
     1  C   -0.640983
     2  C   -0.076533
     3  N   -0.301785
     4  C    0.166977
     5  N   -0.440555
     6  C    0.617690
     7  C   -0.851540
     8  C    0.817652
     9  C   -0.547287
    10  C   -0.456214
    11  C   -0.633834
    12  C    0.480920
    13  C    0.832083
    14  C   -0.917710
    15  C   -0.732397
    16  H    0.118797
    17  H    0.163939
    18  H    0.342200
    19  H    0.153742
    20  H    0.166706
    21  H    0.170098
    22  H    0.162299
    23  H    0.149016
    24  H    0.120770
    25  H    0.117200
    26  H    0.175296
    27  H    0.169270
    28  H    0.180100
    29  H    0.171950
    30  H    0.167470
    31  H    0.154664
 Sum of Mulliken charges =  -0.00000

 Dipole moment (field-independent basis, Debye):
    X=              3.3743    Y=              0.3910    Z=             -2.5820  Tot=              4.2668
 Quadrupole moment (field-independent basis, Debye-Ang):
   XX=            -57.2904   YY=            -85.6159   ZZ=            -93.8057
   XY=             -7.9360   XZ=             -7.6536   YZ=              0.6699

 Normal termination of Gaussian 16 at Sun Oct  9 18:28:24 2022.
