 Gaussian 16, Revision A.03,
 Gaussian 16:  ES64L-G16RevA.03 25-Dec-2016

 ------------------------------------------------------------------
 #P freq=vcd APFD/6-311+G(2d,p) guess=read geom=allcheck scrf=check
 ------------------------------------------------------------------

 Structure from the checkpoint file:  "CONF_01_VCD.chk"
 -------------------------------------------------------------------
 Structure: CONF_1 Calculation: Opt Freq at APFD/6-311+g(2d,p) level
 -------------------------------------------------------------------
 Charge =  0 Multiplicity = 1

                         Standard orientation:
 ---------------------------------------------------------------------
 Center     Atomic      Atomic             Coordinates (Angstroms)
 Number     Number       Type             X           Y           Z
 ---------------------------------------------------------------------
      1          6           0        1.997912    0.351346    0.130796
      2          6           0        3.049048    0.167224   -0.726273
      3          7           0        3.980116   -0.550451   -0.021613
      4          6           0        3.473245   -0.770730    1.210411
      5          7           0        2.278744   -0.241780    1.340734
      6          6           0        0.697204    1.050511   -0.103372
      7          6           0        0.724317    1.896290   -1.379234
      8          6           0       -0.485902    0.094003   -0.144263
      9          6           0       -0.292396   -1.205019   -0.613937
     10          6           0       -1.349265   -2.094065   -0.718408
     11          6           0       -2.622832   -1.687943   -0.344836
     12          6           0       -2.847905   -0.397563    0.124141
     13          6           0       -1.775976    0.508785    0.220999
     14          6           0       -2.068430    1.902243    0.706305
     15          6           0       -4.237131    0.015750    0.517891
     16          1           0        0.561583    1.721759    0.751149
     17          1           0        3.216617    0.473315   -1.745471
     18          1           0        4.882026   -0.850490   -0.357201
     19          1           0        4.014353   -1.313962    1.970846
     20          1           0       -0.218419    2.432410   -1.506236
     21          1           0        0.861648    1.260403   -2.258357
     22          1           0        1.536567    2.627595   -1.352869
     23          1           0        0.708642   -1.517740   -0.893700
     24          1           0       -1.181449   -3.102277   -1.084786
     25          1           0       -3.457242   -2.379898   -0.417158
     26          1           0       -2.532931    1.885046    1.697172
     27          1           0       -1.182266    2.529780    0.769929
     28          1           0       -2.776244    2.405947    0.039914
     29          1           0       -4.285035    0.321726    1.568010
     30          1           0       -4.586708    0.869669   -0.071351
     31          1           0       -4.944500   -0.802653    0.374938
 ---------------------------------------------------------------------

 SCF Done:  E(RAPFD) =  -614.209835638     A.U. after    1 cycles

      1  C    Isotropic =    35.7534   Anisotropy =   125.6960

      2  C    Isotropic =    70.9308   Anisotropy =   119.0432

      3  N    Isotropic =    85.9470   Anisotropy =   137.8130

      4  C    Isotropic =    49.2418   Anisotropy =   105.8422

      5  N    Isotropic =   -21.9062   Anisotropy =   372.3763

      6  C    Isotropic =   147.0954   Anisotropy =    12.1249

      7  C    Isotropic =   166.0683   Anisotropy =    32.6270

      8  C    Isotropic =    36.6547   Anisotropy =   192.5779

      9  C    Isotropic =    58.4702   Anisotropy =   177.6102

     10  C    Isotropic =    58.3766   Anisotropy =   176.4264

     11  C    Isotropic =    56.6722   Anisotropy =   152.3534

     12  C    Isotropic =    44.1098   Anisotropy =   190.2661

     13  C    Isotropic =    47.3104   Anisotropy =   180.2491

     14  C    Isotropic =   171.8642   Anisotropy =    15.1708

     15  C    Isotropic =   164.9325   Anisotropy =    29.5618

     16  H    Isotropic =    27.0896   Anisotropy =     7.1857

     17  H    Isotropic =    24.4485   Anisotropy =     6.5168

     18  H    Isotropic =    22.7496   Anisotropy =     7.9602

     19  H    Isotropic =    24.0735   Anisotropy =     4.1282

     20  H    Isotropic =    30.3815   Anisotropy =     7.2312

     21  H    Isotropic =    30.5786   Anisotropy =     7.1673

     22  H    Isotropic =    30.1920   Anisotropy =    10.5984

     23  H    Isotropic =    25.0130   Anisotropy =    12.5171

     24  H    Isotropic =    24.5096   Anisotropy =     5.7683

     25  H    Isotropic =    24.3779   Anisotropy =     6.3552

     26  H    Isotropic =    29.5633   Anisotropy =     8.9626

     27  H    Isotropic =    28.9519   Anisotropy =     7.2828

     28  H    Isotropic =    29.6126   Anisotropy =     8.5095

     29  H    Isotropic =    29.3685   Anisotropy =     7.8608

     30  H    Isotropic =    29.3831   Anisotropy =     7.6514

     31  H    Isotropic =    29.5281   Anisotropy =     8.4240

 The electronic state is 1-A.
 Alpha  occ. eigenvalues --  -14.40770 -14.33638 -10.25148 -10.22235 -10.21669
 Alpha  occ. eigenvalues --  -10.21034 -10.20653 -10.20562 -10.20524 -10.19418
 Alpha  occ. eigenvalues --  -10.19209 -10.19060 -10.18774 -10.18771 -10.18617
 Alpha  occ. eigenvalues --   -1.04462  -0.89966  -0.88366  -0.82610  -0.79522
 Alpha  occ. eigenvalues --   -0.77171  -0.74246  -0.71134  -0.68703  -0.66371
 Alpha  occ. eigenvalues --   -0.62435  -0.60690  -0.58982  -0.58111  -0.54846
 Alpha  occ. eigenvalues --   -0.51025  -0.49526  -0.46535  -0.45887  -0.44924
 Alpha  occ. eigenvalues --   -0.44622  -0.44339  -0.43315  -0.42714  -0.41022
 Alpha  occ. eigenvalues --   -0.40537  -0.39962  -0.39066  -0.38825  -0.37722
 Alpha  occ. eigenvalues --   -0.36034  -0.35399  -0.33843  -0.33482  -0.29594
 Alpha  occ. eigenvalues --   -0.29516  -0.25107  -0.24751  -0.23905
 Alpha virt. eigenvalues --   -0.00856  -0.00607   0.01171   0.01541   0.01931
 Alpha virt. eigenvalues --    0.02618   0.03142   0.03613   0.04179   0.04847
 Alpha virt. eigenvalues --    0.04977   0.05405   0.05681   0.06061   0.06554

 Mulliken charges:
               1
     1  C   -0.623929
     2  C   -0.069431
     3  N   -0.295230
     4  C    0.162056
     5  N   -0.462831
     6  C    0.643120
     7  C   -0.819357
     8  C    0.824385
     9  C   -0.564548
    10  C   -0.469006
    11  C   -0.632883
    12  C    0.454923
    13  C    0.813275
    14  C   -0.884662
    15  C   -0.702116
    16  H    0.113940
    17  H    0.159958
    18  H    0.333520
    19  H    0.152035
    20  H    0.164155
    21  H    0.165121
    22  H    0.158822
    23  H    0.144871
    24  H    0.118278
    25  H    0.114245
    26  H    0.171542
    27  H    0.166880
    28  H    0.176001
    29  H    0.168998
    30  H    0.164834
    31  H    0.153033
 Sum of Mulliken charges =  -0.00000

 Dipole moment (field-independent basis, Debye):
    X=              3.3700    Y=              0.3977    Z=             -2.5802  Tot=              4.2629
 Quadrupole moment (field-independent basis, Debye-Ang):
   XX=            -57.3816   YY=            -85.7145   ZZ=            -93.8901
   XY=             -7.9317   XZ=             -7.6576   YZ=              0.6700

  Exact polarizability: 261.654  -8.306 218.191 -15.448   7.010 181.771
 Approx polarizability: 275.613 -11.107 243.797 -20.054  11.012 208.928

                      1                      2                      3
                      A                      A                      A
 Frequencies --     28.9248                50.8317                73.0043
 Red. masses --      3.1382                 4.5384                 4.3925
 Frc consts  --      0.0015                 0.0069                 0.0138
 IR Inten    --      2.0100                11.2115                 3.3652

                      4                      5                      6
                      A                      A                      A
 Frequencies --    102.1987               116.8858               170.1956
 Red. masses --      1.1221                 3.0927                 3.1556
 Frc consts  --      0.0069                 0.0249                 0.0539
 IR Inten    --      0.0376                 0.8554                 3.6433

                      7                      8                      9
                      A                      A                      A
 Frequencies --    187.4435               208.9806               246.8906
 Red. masses --      1.2198                 2.9985                 2.3803
 Frc consts  --      0.0253                 0.0772                 0.0855
 IR Inten    --      3.5575                 0.4298                 7.6545

                     10                     11                     12
                      A                      A                      A
 Frequencies --    265.0194               273.0907               311.2094
 Red. masses --      1.8906                 1.4285                 4.2260
 Frc consts  --      0.0782                 0.0628                 0.2412
 IR Inten    --      0.7467                 0.7951                11.3388

                     13                     14                     15
                      A                      A                      A
 Frequencies --    320.2437               353.7337               454.1796
 Red. masses --      3.2454                 2.6718                 3.6924
 Frc consts  --      0.1961                 0.1970                 0.4488
 IR Inten    --      2.9249                 2.1894                15.4414

                     16                     17                     18
                      A                      A                      A
 Frequencies --    464.6990               519.5736               520.6808
 Red. masses --      3.2386                 3.2080                 3.9268
 Frc consts  --      0.4121                 0.5102                 0.6272
 IR Inten    --      2.4121                 0.0367                 0.5298

                     19                     20                     21
                      A                      A                      A
 Frequencies --    547.0344               554.8790               599.2698
 Red. masses --      1.7796                 3.1271                 3.4868
 Frc consts  --      0.3138                 0.5673                 0.7378
 IR Inten    --    120.6276                44.6368                 4.3788

                     22                     23                     24
                      A                      A                      A
 Frequencies --    661.3702               682.7690               716.3034
 Red. masses --      2.2207                 3.0118                 3.3373
 Frc consts  --      0.5723                 0.8272                 1.0089
 IR Inten    --      4.0488                 0.4922                 4.4241

                     25                     26                     27
                      A                      A                      A
 Frequencies --    741.9966               746.0534               794.7940
 Red. masses --      1.6323                 1.8149                 2.8633
 Frc consts  --      0.5295                 0.5952                 1.0657
 IR Inten    --     22.9737                28.6993                11.6739

                     28                     29                     30
                      A                      A                      A
 Frequencies --    798.1395               827.5179               844.6767
 Red. masses --      1.6883                 4.3532                 1.4228
 Frc consts  --      0.6337                 1.7564                 0.5981
 IR Inten    --     40.3091                 0.7527                37.0783

                     31                     32                     33
                      A                      A                      A
 Frequencies --    883.2988               918.3561               954.1021
 Red. masses --      2.4984                 1.3483                 4.8276
 Frc consts  --      1.1485                 0.6700                 2.5892
 IR Inten    --      1.4584                 0.3337                 4.4092

                     34                     35                     36
                      A                      A                      A
 Frequencies --    967.1778               986.4150              1007.8888
 Red. masses --      2.6964                 1.3222                 1.4001
 Frc consts  --      1.4861                 0.7580                 0.8380
 IR Inten    --     17.5826                 0.3618                21.0414

                     37                     38                     39
                      A                      A                      A
 Frequencies --   1010.9565              1031.6420              1048.4519
 Red. masses --      1.8841                 1.4501                 1.6470
 Frc consts  --      1.1346                 0.9093                 1.0667
 IR Inten    --     12.6320                 5.9749                 8.0035

                     40                     41                     42
                      A                      A                      A
 Frequencies --   1063.8247              1091.3989              1101.1052
 Red. masses --      1.6564                 2.1372                 1.8585
 Frc consts  --      1.1045                 1.4999                 1.3276
 IR Inten    --      0.9379                19.0846                19.5645

                     43                     44                     45
                      A                      A                      A
 Frequencies --   1116.5497              1124.0367              1158.3150
 Red. masses --      1.9922                 1.7950                 1.7056
 Frc consts  --      1.4633                 1.3362                 1.3483
 IR Inten    --     27.5814                26.1707                14.5555

                     46                     47                     48
                      A                      A                      A
 Frequencies --   1193.3982              1206.7591              1246.0503
 Red. masses --      1.2025                 2.7991                 1.5859
 Frc consts  --      1.0090                 2.4016                 1.4508
 IR Inten    --      0.5865                 2.2110                16.4536

                     49                     50                     51
                      A                      A                      A
 Frequencies --   1268.0763              1272.6979              1276.8270
 Red. masses --      2.2820                 2.5133                 1.8284
 Frc consts  --      2.1620                 2.3985                 1.7563
 IR Inten    --     15.4246                 0.6370                 5.8505

                     52                     53                     54
                      A                      A                      A
 Frequencies --   1306.1992              1340.3459              1357.5392
 Red. masses --      1.7549                 3.6146                 4.0002
 Frc consts  --      1.7640                 3.8260                 4.3435
 IR Inten    --      1.5989                 1.3830                 6.7032

                     55                     56                     57
                      A                      A                      A
 Frequencies --   1376.5930              1396.4780              1401.4868
 Red. masses --      2.2055                 1.2332                 1.2848
 Frc consts  --      2.4624                 1.4169                 1.4869
 IR Inten    --      5.3836                10.3353                 0.2731

                     58                     59                     60
                      A                      A                      A
 Frequencies --   1408.8159              1456.4546              1462.7423
 Red. masses --      1.2129                 1.3094                 1.0466
 Frc consts  --      1.4184                 1.6366                 1.3194
 IR Inten    --      4.2955                 3.5655                 1.3292

                     61                     62                     63
                      A                      A                      A
 Frequencies --   1476.8652              1480.8357              1484.3728
 Red. masses --      1.2742                 1.2558                 1.3653
 Frc consts  --      1.6374                 1.6225                 1.7725
 IR Inten    --     17.3931                42.4973                 7.7439

                     64                     65                     66
                      A                      A                      A
 Frequencies --   1488.1681              1492.7629              1500.0608
 Red. masses --      1.1421                 1.2697                 1.9254
 Frc consts  --      1.4902                 1.6670                 2.5526
 IR Inten    --      1.9464                18.0749                 8.5240

                     67                     68                     69
                      A                      A                      A
 Frequencies --   1511.4498              1535.4400              1608.1856
 Red. masses --      2.0149                 3.3902                 5.3219
 Frc consts  --      2.7120                 4.7092                 8.1094
 IR Inten    --     42.0659                52.5526                23.1197

                     70                     71                     72
                      A                      A                      A
 Frequencies --   1637.1460              1649.6679              3033.8485
 Red. masses --      6.3838                 5.9129                 1.0382
 Frc consts  --     10.0810                 9.4807                 5.6304
 IR Inten    --     15.4815                 0.1525                52.3584

                     73                     74                     75
                      A                      A                      A
 Frequencies --   3040.0318              3040.5916              3051.4576
 Red. masses --      1.0406                 1.0389                 1.0806
 Frc consts  --      5.6663                 5.6587                 5.9284
 IR Inten    --     21.4172                46.1180                23.2857

                     76                     77                     78
                      A                      A                      A
 Frequencies --   3084.8215              3089.0494              3112.9386
 Red. masses --      1.0992                 1.0995                 1.1021
 Frc consts  --      6.1632                 6.1813                 6.2925
 IR Inten    --     42.1893                 1.1898                47.3085

                     79                     80                     81
                      A                      A                      A
 Frequencies --   3124.3928              3126.3325              3159.3586
 Red. masses --      1.1015                 1.1004                 1.0946
 Frc consts  --      6.3353                 6.3369                 6.4376
 IR Inten    --     42.7882                29.0268                25.6625

                     82                     83                     84
                      A                      A                      A
 Frequencies --   3165.5803              3177.9092              3191.7272
 Red. masses --      1.0863                 1.0899                 1.0962
 Frc consts  --      6.4137                 6.4854                 6.5796
 IR Inten    --      8.1906                20.1016                30.5655

                     85                     86                     87
                      A                      A                      A
 Frequencies --   3261.1389              3289.0897              3669.4932
 Red. masses --      1.0980                 1.0993                 1.0824
 Frc consts  --      6.8801                 7.0067                 8.5872
 IR Inten    --      1.7439                 0.8002               152.3340

 - Thermochemistry -
 -------------------
 Temperature   298.150 Kelvin.  Pressure   1.00000 Atm.
 Atom     1 has atomic number  6 and mass  12.00000

 Molecular mass:   200.13135 amu.
 Principal axes and moments of inertia in atomic units:
                           1         2         3
     Eigenvalues --  1420.852394959.096915525.31987
           X            0.99990  -0.00775  -0.01213
           Y            0.00769   0.99996  -0.00483
           Z            0.01217   0.00474   0.99991
 This molecule is an asymmetric top.
 Rotational symmetry number  1.
 Warning -- assumption of classical behavior for rotation
           may cause significant error
 Rotational temperatures (Kelvin)      0.06096     0.01747     0.01568
 Rotational constants (GHZ):           1.27018     0.36393     0.32663
 Zero-point vibrational energy     694428.0 (Joules/Mol)
                                  165.97227 (Kcal/Mol)
 Warning -- explicit consideration of  21 degrees of freedom as
           vibrations may cause significant error
 Vibrational temperatures:     41.62    73.14   105.04   147.04   168.17
          (Kelvin)            244.87   269.69   300.68   355.22   381.30
                              392.92   447.76   460.76   508.94   653.46
                              668.60   747.55   749.14   787.06   798.35
                              862.22   951.56   982.35  1030.60  1067.57
                             1073.40  1143.53  1148.34  1190.61  1215.30
                             1270.87  1321.31  1372.74  1391.55  1419.23
                             1450.13  1454.54  1484.30  1508.49  1530.61
                             1570.28  1584.24  1606.47  1617.24  1666.56
                             1717.03  1736.26  1792.79  1824.48  1831.13
                             1837.07  1879.33  1928.46  1953.20  1980.61
                             2009.22  2016.43  2026.97  2095.51  2104.56
                             2124.88  2130.59  2135.68  2141.14  2147.75
                             2158.25  2174.64  2209.16  2313.82  2355.49
                             2373.50  4365.03  4373.93  4374.73  4390.37
                             4438.37  4444.45  4478.82  4495.30  4498.10
                             4545.61  4554.56  4572.30  4592.18  4692.05
                             4732.27  5279.58

 Zero-point correction=                           0.264494 (Hartree/Particle)
 Thermal correction to Energy=                    0.278597
 Thermal correction to Enthalpy=                  0.279541
 Thermal correction to Gibbs Free Energy=         0.222999
 Sum of electronic and zero-point Energies=           -613.945342
 Sum of electronic and thermal Energies=              -613.931239
 Sum of electronic and thermal Enthalpies=            -613.930295
 Sum of electronic and thermal Free Energies=         -613.986837

                     E (Thermal)             CV                S
                      KCal/Mol        Cal/Mol-Kelvin    Cal/Mol-Kelvin
 Total                  174.822             54.480            119.002
 Electronic               0.000              0.000              0.000
 Translational            0.889              2.981             41.786
 Rotational               0.889              2.981             32.032
 Vibrational            173.045             48.518             45.184
 Vibration     1          0.593              1.984              5.902
 Vibration     2          0.595              1.977              4.785
 Vibration     3          0.599              1.967              4.071
 Vibration     4          0.604              1.947              3.412
 Vibration     5          0.608              1.935              3.151
 Vibration     6          0.625              1.879              2.433
 Vibration     7          0.632              1.857              2.253
 Vibration     8          0.642              1.827              2.053
 Vibration     9          0.661              1.768              1.753
 Vibration    10          0.671              1.737              1.628
 Vibration    11          0.676              1.723              1.577
 Vibration    12          0.700              1.652              1.356
 Vibration    13          0.706              1.635              1.309
 Vibration    14          0.730              1.568              1.150
 Vibration    15          0.813              1.352              0.783
 Vibration    16          0.822              1.328              0.753
 Vibration    17          0.875              1.207              0.611
 Vibration    18          0.876              1.204              0.608
 Vibration    19          0.902              1.146              0.550
 Vibration    20          0.910              1.129              0.534
 Vibration    21          0.957              1.033              0.451

                           ! Non-Optimized Parameters !
 Normal termination of Gaussian 16 at Sun Oct  9 18:49:32 2022.
